<VTKFile type="UnstructuredGrid" version="0.1" byte_order="LittleEndian">
<UnstructuredGrid>
<Piece NumberOfPoints="144" NumberOfCells="121">
<Points>
<DataArray type="Float32" NumberOfComponents="3" format="ascii">
0.0 0.0 0 4.0 0.0 0 4.0 4.0 0 0.0 4.0 0 0.3636363636356759 0.0 0 0.7272727272711672 0.0 0 1.090909090906469 0.0 0 1.454545454541772 0.0 0 1.818181818177074 0.0 0 2.181818181813386 0.0 0 2.545454545450709 0.0 0 2.909090909088032 0.0 0 3.272727272725354 0.0 0 3.636363636362677 0.0 0 4.0 0.3636363636356759 0 4.0 0.7272727272711672 0 4.0 1.090909090906469 0 4.0 1.454545454541772 0 4.0 1.818181818177074 0 4.0 2.181818181813386 0 4.0 2.545454545450709 0 4.0 2.909090909088032 0 4.0 3.272727272725354 0 4.0 3.636363636362677 0 3.636363636362122 4.0 0 3.272727272726768 4.0 0 2.909090909092928 4.0 0 2.545454545459086 4.0 0 2.181818181825245 4.0 0 1.818181818189386 4.0 0 1.454545454551509 4.0 0 1.090909090913631 4.0 0 0.727272727275754 4.0 0 0.3636363636378768 4.0 0 0.0 3.636363636362122 0 0.0 3.272727272726768 0 0.0 2.909090909092928 0 0.0 2.545454545459086 0 0.0 2.181818181825245 0 0.0 1.818181818189386 0 0.0 1.454545454551509 0 0.0 1.090909090913631 0 0.0 0.727272727275754 0 0.0 0.3636363636378768 0 0.363636363635876 0.3636363636376767 0 0.363636363636076 0.727272727275337 0 0.363636363636276 1.09090909091298 0 0.3636363636364761 1.454545454550624 0 0.3636363636366763 1.818181818188267 0 0.3636363636368763 2.181818181824167 0 0.3636363636370765 2.545454545458325 0 0.3636363636372766 2.909090909092483 0 0.3636363636374766 3.27272727272664 0 0.3636363636376767 3.636363636362173 0 0.7272727272715842 0.3636363636374766 0 0.7272727272720012 0.7272727272749202 0 0.7272727272724182 1.090909090912329 0 0.727272727272835 1.454545454549738 0 0.7272727272732522 1.818181818187147 0 0.7272727272736692 2.181818181823089 0 0.727272727274086 2.545454545457563 0 0.7272727272745032 2.909090909092038 0 0.72727272727492 3.272727272726511 0 0.727272727275337 3.636363636362223 0 1.09090909090712 0.3636363636372766 0 1.090909090907771 0.727272727274503 0 1.090909090908423 1.090909090911678 0 1.090909090909074 1.454545454548853 0 1.090909090909725 1.818181818186028 0 1.090909090910376 2.181818181822011 0 1.090909090911027 2.545454545456801 0 1.090909090911678 2.909090909091593 0 1.090909090912329 3.272727272726382 0 1.09090909091298 3.636363636362274 0 1.454545454542657 0.3636363636370764 0 1.454545454543542 0.727272727274086 0 1.454545454544427 1.090909090911027 0 1.454545454545312 1.454545454547968 0 1.454545454546198 1.818181818184908 0 1.454545454547083 2.181818181820932 0 1.454545454547968 2.545454545456039 0 1.454545454548853 2.909090909091147 0 1.454545454549738 3.272727272726255 0 1.454545454550623 3.636363636362324 0 1.818181818178193 0.3636363636368763 0 1.818181818179312 0.7272727272736692 0 1.818181818180432 1.090909090910376 0 1.818181818181551 1.454545454547083 0 1.81818181818267 1.818181818183789 0 1.818181818183789 2.181818181819854 0 1.818181818184908 2.545454545455279 0 1.818181818186028 2.909090909090703 0 1.818181818187147 3.272727272726125 0 1.818181818188267 3.636363636362375 0 2.181818181814464 0.3636363636366763 0 2.181818181815543 0.7272727272732522 0 2.18181818181662 1.090909090909725 0 2.181818181817698 1.454545454546198 0 2.181818181818777 1.81818181818267 0 2.181818181819854 2.181818181818777 0 2.181818181820932 2.545454545454517 0 2.181818181822011 2.909090909090257 0 2.181818181823089 3.272727272725997 0 2.181818181824167 3.636363636362425 0 2.545454545451471 0.3636363636364761 0 2.545454545452233 0.7272727272728352 0 2.545454545452995 1.090909090909074 0 2.545454545453756 1.454545454545312 0 2.545454545454517 1.818181818181551 0 2.545454545455279 2.181818181817698 0 2.54545454545604 2.545454545453755 0 2.545454545456801 2.909090909089813 0 2.545454545457563 3.272727272725869 0 2.545454545458326 3.636363636362475 0 2.909090909088477 0.363636363636276 0 2.909090909088923 0.7272727272724182 0 2.909090909089367 1.090909090908422 0 2.909090909089811 1.454545454544427 0 2.909090909090258 1.818181818180431 0 2.909090909090703 2.18181818181662 0 2.909090909091147 2.545454545452995 0 2.909090909091593 2.909090909089367 0 2.909090909092036 3.27272727272574 0 2.909090909092483 3.636363636362526 0 3.272727272725483 0.363636363636076 0 3.272727272725612 0.7272727272720012 0 3.272727272725739 1.090909090907771 0 3.272727272725868 1.454545454543542 0 3.272727272725998 1.818181818179312 0 3.272727272726125 2.181818181815543 0 3.272727272726255 2.545454545452233 0 3.272727272726382 2.909090909088922 0 3.272727272726511 3.272727272725611 0 3.27272727272664 3.636363636362576 0 3.636363636362627 0.3636363636358759 0 3.636363636362577 0.7272727272715842 0 3.636363636362526 1.09090909090712 0 3.636363636362475 1.454545454542656 0 3.636363636362425 1.818181818178193 0 3.636363636362375 2.181818181814465 0 3.636363636362324 2.545454545451471 0 3.636363636362274 2.909090909088477 0 3.636363636362224 3.272727272725483 0 3.636363636362173 3.636363636362627 0 
</DataArray>
</Points>
<Cells>
<DataArray type="Int32" Name="connectivity" format="ascii">
0 4 44 43 43 44 45 42 42 45 46 41 41 46 47 40 40 47 48 39 39 48 49 38 38 49 50 37 37 50 51 36 36 51 52 35 35 52 53 34 34 53 33 3 4 5 54 44 44 54 55 45 45 55 56 46 46 56 57 47 47 57 58 48 48 58 59 49 49 59 60 50 50 60 61 51 51 61 62 52 52 62 63 53 53 63 32 33 5 6 64 54 54 64 65 55 55 65 66 56 56 66 67 57 57 67 68 58 58 68 69 59 59 69 70 60 60 70 71 61 61 71 72 62 62 72 73 63 63 73 31 32 6 7 74 64 64 74 75 65 65 75 76 66 66 76 77 67 67 77 78 68 68 78 79 69 69 79 80 70 70 80 81 71 71 81 82 72 72 82 83 73 73 83 30 31 7 8 84 74 74 84 85 75 75 85 86 76 76 86 87 77 77 87 88 78 78 88 89 79 79 89 90 80 80 90 91 81 81 91 92 82 82 92 93 83 83 93 29 30 8 9 94 84 84 94 95 85 85 95 96 86 86 96 97 87 87 97 98 88 88 98 99 89 89 99 100 90 90 100 101 91 91 101 102 92 92 102 103 93 93 103 28 29 9 10 104 94 94 104 105 95 95 105 106 96 96 106 107 97 97 107 108 98 98 108 109 99 99 109 110 100 100 110 111 101 101 111 112 102 102 112 113 103 103 113 27 28 10 11 114 104 104 114 115 105 105 115 116 106 106 116 117 107 107 117 118 108 108 118 119 109 109 119 120 110 110 120 121 111 111 121 122 112 112 122 123 113 113 123 26 27 11 12 124 114 114 124 125 115 115 125 126 116 116 126 127 117 117 127 128 118 118 128 129 119 119 129 130 120 120 130 131 121 121 131 132 122 122 132 133 123 123 133 25 26 12 13 134 124 124 134 135 125 125 135 136 126 126 136 137 127 127 137 138 128 128 138 139 129 129 139 140 130 130 140 141 131 131 141 142 132 132 142 143 133 133 143 24 25 13 1 14 134 134 14 15 135 135 15 16 136 136 16 17 137 137 17 18 138 138 18 19 139 139 19 20 140 140 20 21 141 141 21 22 142 142 22 23 143 143 23 2 24 
</DataArray>
<DataArray type="Int32" Name="offsets" format="ascii">
4 8 12 16 20 24 28 32 36 40 44 48 52 56 60 64 68 72 76 80 84 88 92 96 100 104 108 112 116 120 124 128 132 136 140 144 148 152 156 160 164 168 172 176 180 184 188 192 196 200 204 208 212 216 220 224 228 232 236 240 244 248 252 256 260 264 268 272 276 280 284 288 292 296 300 304 308 312 316 320 324 328 332 336 340 344 348 352 356 360 364 368 372 376 380 384 388 392 396 400 404 408 412 416 420 424 428 432 436 440 444 448 452 456 460 464 468 472 476 480 484 
</DataArray>
<DataArray type="UInt8" Name="types" format="ascii">
9 9 9 9 9 9 9 9 9 9 9 9 9 9 9 9 9 9 9 9 9 9 9 9 9 9 9 9 9 9 9 9 9 9 9 9 9 9 9 9 9 9 9 9 9 9 9 9 9 9 9 9 9 9 9 9 9 9 9 9 9 9 9 9 9 9 9 9 9 9 9 9 9 9 9 9 9 9 9 9 9 9 9 9 9 9 9 9 9 9 9 9 9 9 9 9 9 9 9 9 9 9 9 9 9 9 9 9 9 9 9 9 9 9 9 9 9 9 9 9 9 
</DataArray>
</Cells>
<PointData>
<DataArray type="Float32" Name="q" format="ascii">
0.3061848422258051 0.6200296104236693 1.7546444809043504 0.9889133086609179 0.3637542837763187 0.42132372532680307 0.8611275525065274 0.9357020481078724 1.0102765437092174 1.0424276772420804 1.0438944193812256 1.0453611615203713 0.7204654465988422 0.6702475285112557 0.6561516657574108 0.6922737210911339 1.3164678103208112 1.3465147382622025 1.376561666203594 1.663719082500195 1.6703110933653926 1.6769031042305897 1.7657446256704799 1.7601945532874153 1.895923043868831 2.037201606832331 3.0119178675179183 3.028245158971054 3.0445724504241896 2.987622467969209 2.808307051329015 2.62899163468882 1.2893660593358907 1.1391396839984043 0.9791520958404332 0.9693908830200162 0.9405213440036436 0.9222923337339938 0.904063323464344 0.7586674905376176 0.7260771942291626 0.6934868979207075 0.36613565425960515 0.33616024824270513 0.39490119839616394 0.4260481130160091 0.8093565886371237 0.8436545939490945 0.8779525992610668 1.0450947864211002 1.064955855248476 1.0848169240758532 1.1165534029218904 1.1278465434601108 0.45364214854959445 0.48596057177238544 0.9252262793534913 0.9612319936689799 0.9972377079844726 1.1861262493778146 1.2076193767629246 1.2291125041480389 1.2637159228237498 1.276540991079782 0.9291728505257573 0.9972181485449848 1.8961059279706063 1.9653798873167316 2.0346538466628656 2.436325216558457 2.4707819240030586 2.505238631447667 2.599045335021941 2.6140184848553396 1.0056288191811362 1.0755555902543963 2.039371944766819 2.1109741589563766 2.1825763731459467 2.6065175676762333 2.642856359486933 2.679195151297643 2.7751429648714616 2.7917250081001974 1.082084787836513 1.1538930319638034 2.1826379615630236 2.256568430596011 2.3304988996290126 2.776709918793998 2.8149307949708 2.8531516711476135 2.951240594720981 2.969431531345056 1.1082914057391884 1.174155134236284 2.244674706697631 2.30696845583326 2.369262204968893 2.853204125244259 2.8788136365887587 2.9044231479332585 3.0328568508516742 3.0387146506379237 1.110756692944608 1.177618966507973 2.238908523062308 2.3018878063385007 2.3648670896146955 2.8403752034848173 2.8659746823612138 2.891574161237611 3.0171781267188855 3.022711642844963 1.1132219801500267 1.1810827987796597 2.2331423394269825 2.296807156843737 2.3604719742604936 2.8275462817253754 2.85313572813367 2.878725174541964 3.0014994025860973 3.006708635052003 0.7564704644463773 0.7924754822938977 1.5266264383598416 1.5577454656036112 1.5888644928473803 1.9264386918637857 1.9351741854698938 1.9439096790760022 2.0431929249124687 2.040197265872402 0.7063110651019099 0.7423746016925474 1.4215471243404245 1.4521301019330388 1.482713079525653 1.7950788871822356 1.8027426394179336 1.8104063916536313 1.9044687752918672 1.9001959095803502 
</DataArray>
<DataArray type="Float32" Name="error" format="ascii">
5.2664539396118926e-12 9.281464485866309e-13 8.744116541947733e-12 8.519296379461139e-12 6.525557871839283e-12 7.78410669255436e-12 8.956946295768375e-12 9.881873097583593e-12 1.0805578654071724e-11 3.6139979897598096e-12 4.71866989926184e-12 5.825118165603271e-12 1.971978136339203e-12 1.4503953593703045e-12 8.095746295566641e-13 6.910028105266974e-13 4.843236922624783e-12 4.537481501643015e-12 4.2310599468464716e-12 9.458656080596484e-12 8.672618179161873e-12 7.891909348245463e-12 1.0631273639205574e-11 9.688028157484041e-12 1.0491385538102804e-11 1.2237766355838176e-11 7.207567875866516e-13 8.926193117986259e-14 9.050538096744276e-13 1.602495913743951e-11 1.3580692126424765e-11 1.113287240173122e-11 1.2182477249211843e-11 1.035083130318526e-11 7.931766354829506e-12 7.343348151778173e-12 8.297029729931182e-12 8.275935492463304e-12 8.255951478020052e-12 1.2530421145129367e-11 1.1563305868378393e-11 1.0598966149188982e-11 6.549760733776111e-12 5.907885292089077e-12 7.19097004164837e-12 7.855771588793914e-12 1.3095635686966034e-11 1.4102274903393663e-11 1.510702674067943e-11 9.743095219505449e-12 9.777290088663904e-12 9.812595180846984e-12 9.122480548739986e-12 9.737100015172473e-12 8.472889057031807e-12 9.162004488416642e-12 1.5593193403162786e-11 1.6638690425452296e-11 1.7683743358531956e-11 1.1229461804873608e-11 1.127986593019159e-11 1.1327161431040622e-11 1.0900613744979637e-11 1.1541212430188352e-11 9.813150292359296e-12 1.0670575534277305e-11 1.5884848991731815e-11 1.7148726882965093e-11 1.8411050461963896e-11 1.1179501768765476e-11 1.1708412017696901e-11 1.2239098623467726e-11 8.212541757757208e-12 9.670042544485113e-12 1.0760725643876867e-11 1.1638467967145516e-11 1.780042779842006e-11 1.9100276915651193e-11 2.0398793765252776e-11 1.2778222924225702e-11 1.332889354443978e-11 1.3878675986234157e-11 1.056843501601179e-11 1.2078782418711853e-11 1.1705081348623025e-11 1.2604584043174327e-11 1.971356411445413e-11 2.1048052190053568e-11 2.2382984354862856e-11 1.4371170919957876e-11 1.4945378268294007e-11 1.5517809259790738e-11 1.2927436898735323e-11 1.4478196419531741e-11 4.304112621866807e-12 4.994671343183654e-12 3.588684904798356e-12 4.5856651809117466e-12 5.5857540814940876e-12 1.6826540161218873e-12 7.585043704239069e-13 1.5898393712632242e-13 2.8963498266421084e-12 1.899369550528718e-12 5.430544902651491e-12 6.140199459991891e-12 4.801936626108727e-12 5.827782700862372e-12 6.848299705097816e-12 4.587441537751147e-13 4.911626660941693e-13 1.4357404154452524e-12 2.1298518504409003e-12 1.1071144001562061e-12 6.553424469757374e-12 7.283063041541027e-12 6.0174087934683484e-12 7.065903417924346e-12 8.110401239491694e-12 7.664979762012081e-13 1.7390533457728452e-12 2.7116087153444823e-12 1.3646861418692424e-12 3.19300141882195e-13 1.864064458345638e-12 1.7570389587717727e-12 6.404432539852678e-12 6.1237681592274384e-12 5.836886529664298e-12 1.3196332915299536e-11 1.2467138432725733e-11 1.1739054173176555e-11 1.4012346838399026e-11 1.31259447755383e-11 1.337485677765926e-12 1.2243539515566226e-12 5.623279619726418e-12 5.328626428990901e-12 5.033973238255385e-12 1.1328493698670172e-11 1.056976728364134e-11 9.814815626896234e-12 1.2322809439524463e-11 1.1405765221184083e-11 
</DataArray>
</PointData>
</Piece>
</UnstructuredGrid>
</VTKFile>
